MODEL 1
REMARK VINA RESULT:     -11.8      0.000      0.000
REMARK SMILES O=C1OC[C@H](Cc2ccc3c(c2)OCO3)/C1=C/c1cc2c(cc1O[C@@H]1O[C@@H](CO)[C@H](O)[C@@H](O)[C@@H]1O)OCO2
REMARK SMILES IDX 18 1 19 2 20 3 21 4 22 5 23 6 36 7 37 8 38 9 17 10 16 11
REMARK SMILES IDX 2 12 3 13 4 14 5 15 1 16 6 17 7 18 8 19 12 20 9 21 11 22
REMARK SMILES IDX 10 23 13 24 15 25 14 26 24 27 25 28 26 29 34 30 27 31 32 32
REMARK SMILES IDX 30 33 35 34 28 36 29 37 33 39 31 41
REMARK H PARENT 35 35 29 38 33 40 31 42
ROOT
ATOM      1  C   UNL     1       1.249  -1.256   5.377  1.00  0.00     0.021 A 
ATOM      2  C   UNL     1      -0.029  -1.832   5.351  1.00  0.00     0.062 A 
ATOM      3  C   UNL     1      -0.334  -2.691   4.318  1.00  0.00     0.166 A 
ATOM      4  C   UNL     1       0.572  -2.981   3.325  1.00  0.00     0.169 A 
ATOM      5  C   UNL     1       1.833  -2.426   3.307  1.00  0.00     0.097 A 
ATOM      6  C   UNL     1       2.183  -1.577   4.363  1.00  0.00     0.134 A 
ATOM      7  O   UNL     1       0.067  -3.837   2.398  1.00  0.00    -0.453 OA
ATOM      8  C   UNL     1      -1.237  -4.101   2.954  1.00  0.00     0.468 C 
ATOM      9  O   UNL     1      -1.522  -3.328   4.142  1.00  0.00    -0.454 OA
ENDROOT
BRANCH   1  10
ATOM     10  C   UNL     1       1.576  -0.326   6.462  1.00  0.00     0.023 C 
BRANCH  10  11
ATOM     11  C   UNL     1       1.075  -0.377   7.706  1.00  0.00     0.045 C 
ATOM     12  C   UNL     1      -0.306  -0.029   8.133  1.00  0.00     0.334 C 
ATOM     13  O   UNL     1      -0.458  -0.467   9.415  1.00  0.00    -0.462 OA
ATOM     14  C   UNL     1       0.645  -1.310   9.759  1.00  0.00     0.242 C 
ATOM     15  C   UNL     1       1.817  -0.836   8.921  1.00  0.00     0.069 C 
ATOM     16  O   UNL     1      -1.167   0.540   7.491  1.00  0.00    -0.247 OA
BRANCH  15  17
ATOM     17  C   UNL     1       2.582   0.339   9.556  1.00  0.00     0.047 C 
BRANCH  17  18
ATOM     18  C   UNL     1       3.278  -0.025  10.846  1.00  0.00    -0.043 A 
ATOM     19  C   UNL     1       4.691  -0.071  10.907  1.00  0.00     0.008 A 
ATOM     20  C   UNL     1       2.526  -0.322  11.993  1.00  0.00     0.054 A 
ATOM     21  C   UNL     1       5.349  -0.410  12.095  1.00  0.00     0.051 A 
ATOM     22  C   UNL     1       3.204  -0.658  13.145  1.00  0.00     0.166 A 
ATOM     23  C   UNL     1       4.575  -0.695  13.199  1.00  0.00     0.165 A 
ATOM     24  O   UNL     1       2.627  -0.993  14.332  1.00  0.00    -0.454 OA
ATOM     25  O   UNL     1       5.038  -1.042  14.431  1.00  0.00    -0.454 OA
ATOM     26  C   UNL     1       3.795  -1.189  15.154  1.00  0.00     0.468 C 
ENDBRANCH  17  18
ENDBRANCH  15  17
ENDBRANCH  10  11
ENDBRANCH   1  10
BRANCH   6  27
ATOM     27  O   UNL     1       3.421  -0.985   4.387  1.00  0.00    -0.461 OA
BRANCH  27  28
ATOM     28  C   UNL     1       3.387   0.367   3.884  1.00  0.00     0.339 C 
ATOM     29  O   UNL     1       2.531   0.419   2.737  1.00  0.00    -0.332 OA
ATOM     30  C   UNL     1       4.828   0.770   3.482  1.00  0.00     0.214 C 
ATOM     31  C   UNL     1       2.336   1.761   2.236  1.00  0.00     0.179 C 
ATOM     32  C   UNL     1       4.833   1.763   2.316  1.00  0.00     0.180 C 
ATOM     33  C   UNL     1       3.591   2.648   2.351  1.00  0.00     0.177 C 
BRANCH  30  34
ATOM     34  O   UNL     1       5.634  -0.355   3.078  1.00  0.00    -0.384 OA
ATOM     35  H   UNL     1       5.041  -0.943   2.569  1.00  0.00     0.211 HD
ENDBRANCH  30  34
BRANCH  31  36
ATOM     36  C   UNL     1       1.109   2.414   2.888  1.00  0.00     0.191 C 
BRANCH  36  37
ATOM     37  O   UNL     1       1.264   3.832   2.950  1.00  0.00    -0.394 OA
ATOM     38  H   UNL     1       2.223   4.012   3.075  1.00  0.00     0.210 HD
ENDBRANCH  36  37
ENDBRANCH  31  36
BRANCH  32  39
ATOM     39  O   UNL     1       6.012   2.585   2.366  1.00  0.00    -0.387 OA
ATOM     40  H   UNL     1       6.131   2.911   1.451  1.00  0.00     0.211 HD
ENDBRANCH  32  39
BRANCH  33  41
ATOM     41  O   UNL     1       3.637   3.578   1.258  1.00  0.00    -0.387 OA
ATOM     42  H   UNL     1       4.162   4.334   1.592  1.00  0.00     0.211 HD
ENDBRANCH  33  41
ENDBRANCH  27  28
ENDBRANCH   6  27
TORSDOF 11
ENDMDL
MODEL 2
REMARK VINA RESULT:     -11.7      1.426      2.319
REMARK SMILES O=C1OC[C@H](Cc2ccc3c(c2)OCO3)/C1=C/c1cc2c(cc1O[C@@H]1O[C@@H](CO)[C@H](O)[C@@H](O)[C@@H]1O)OCO2
REMARK SMILES IDX 18 1 19 2 20 3 21 4 22 5 23 6 36 7 37 8 38 9 17 10 16 11
REMARK SMILES IDX 2 12 3 13 4 14 5 15 1 16 6 17 7 18 8 19 12 20 9 21 11 22
REMARK SMILES IDX 10 23 13 24 15 25 14 26 24 27 25 28 26 29 34 30 27 31 32 32
REMARK SMILES IDX 30 33 35 34 28 36 29 37 33 39 31 41
REMARK H PARENT 35 35 29 38 33 40 31 42
ROOT
ATOM      1  C   UNL     1       0.570  -2.088   6.157  1.00  0.00     0.021 A 
ATOM      2  C   UNL     1      -0.577  -2.859   5.916  1.00  0.00     0.062 A 
ATOM      3  C   UNL     1      -1.106  -2.856   4.643  1.00  0.00     0.166 A 
ATOM      4  C   UNL     1      -0.545  -2.119   3.627  1.00  0.00     0.169 A 
ATOM      5  C   UNL     1       0.574  -1.340   3.826  1.00  0.00     0.097 A 
ATOM      6  C   UNL     1       1.153  -1.351   5.100  1.00  0.00     0.134 A 
ATOM      7  O   UNL     1      -1.227  -2.247   2.458  1.00  0.00    -0.453 OA
ATOM      8  C   UNL     1      -2.244  -3.196   2.839  1.00  0.00     0.468 C 
ATOM      9  O   UNL     1      -2.211  -3.540   4.242  1.00  0.00    -0.454 OA
ENDROOT
BRANCH   1  10
ATOM     10  C   UNL     1       1.128  -2.070   7.513  1.00  0.00     0.023 C 
BRANCH  10  11
ATOM     11  C   UNL     1       0.868  -1.143   8.448  1.00  0.00     0.045 C 
ATOM     12  C   UNL     1      -0.176  -0.086   8.399  1.00  0.00     0.334 C 
ATOM     13  O   UNL     1      -0.263   0.458   9.645  1.00  0.00    -0.462 OA
ATOM     14  C   UNL     1       0.470  -0.355  10.567  1.00  0.00     0.242 C 
ATOM     15  C   UNL     1       1.571  -1.017   9.761  1.00  0.00     0.069 C 
ATOM     16  O   UNL     1      -0.846   0.261   7.445  1.00  0.00    -0.247 OA
BRANCH  15  17
ATOM     17  C   UNL     1       2.827  -0.141   9.613  1.00  0.00     0.047 C 
BRANCH  17  18
ATOM     18  C   UNL     1       3.701  -0.130  10.845  1.00  0.00    -0.043 A 
ATOM     19  C   UNL     1       4.533  -1.236  11.141  1.00  0.00     0.008 A 
ATOM     20  C   UNL     1       3.691   0.978  11.707  1.00  0.00     0.054 A 
ATOM     21  C   UNL     1       5.345  -1.241  12.281  1.00  0.00     0.051 A 
ATOM     22  C   UNL     1       4.497   0.938  12.825  1.00  0.00     0.166 A 
ATOM     23  C   UNL     1       5.306  -0.137  13.102  1.00  0.00     0.165 A 
ATOM     24  O   UNL     1       4.587   1.915  13.768  1.00  0.00    -0.454 OA
ATOM     25  O   UNL     1       6.023   0.035  14.247  1.00  0.00    -0.454 OA
ATOM     26  C   UNL     1       5.590   1.356  14.641  1.00  0.00     0.468 C 
ENDBRANCH  17  18
ENDBRANCH  15  17
ENDBRANCH  10  11
ENDBRANCH   1  10
BRANCH   6  27
ATOM     27  O   UNL     1       2.260  -0.581   5.358  1.00  0.00    -0.461 OA
BRANCH  27  28
ATOM     28  C   UNL     1       2.602   0.271   4.244  1.00  0.00     0.339 C 
ATOM     29  O   UNL     1       3.956   0.712   4.391  1.00  0.00    -0.332 OA
ATOM     30  C   UNL     1       1.648   1.491   4.258  1.00  0.00     0.214 C 
ATOM     31  C   UNL     1       4.430   1.473   3.256  1.00  0.00     0.179 C 
ATOM     32  C   UNL     1       2.322   2.742   3.691  1.00  0.00     0.180 C 
ATOM     33  C   UNL     1       3.348   2.371   2.624  1.00  0.00     0.177 C 
BRANCH  30  34
ATOM     34  O   UNL     1       1.185   1.827   5.582  1.00  0.00    -0.384 OA
ATOM     35  H   UNL     1       0.557   1.122   5.835  1.00  0.00     0.211 HD
ENDBRANCH  30  34
BRANCH  31  36
ATOM     36  C   UNL     1       5.088   0.553   2.218  1.00  0.00     0.191 C 
BRANCH  36  37
ATOM     37  O   UNL     1       6.181   1.212   1.578  1.00  0.00    -0.394 OA
ATOM     38  H   UNL     1       5.883   2.127   1.371  1.00  0.00     0.210 HD
ENDBRANCH  36  37
ENDBRANCH  31  36
BRANCH  32  39
ATOM     39  O   UNL     1       1.339   3.628   3.125  1.00  0.00    -0.387 OA
ATOM     40  H   UNL     1       1.440   3.532   2.158  1.00  0.00     0.211 HD
ENDBRANCH  32  39
BRANCH  33  41
ATOM     41  O   UNL     1       3.947   3.566   2.101  1.00  0.00    -0.387 OA
ATOM     42  H   UNL     1       4.676   3.774   2.719  1.00  0.00     0.211 HD
ENDBRANCH  33  41
ENDBRANCH  27  28
ENDBRANCH   6  27
TORSDOF 11
ENDMDL
MODEL 3
REMARK VINA RESULT:     -11.2      1.081      2.201
REMARK SMILES O=C1OC[C@H](Cc2ccc3c(c2)OCO3)/C1=C/c1cc2c(cc1O[C@@H]1O[C@@H](CO)[C@H](O)[C@@H](O)[C@@H]1O)OCO2
REMARK SMILES IDX 18 1 19 2 20 3 21 4 22 5 23 6 36 7 37 8 38 9 17 10 16 11
REMARK SMILES IDX 2 12 3 13 4 14 5 15 1 16 6 17 7 18 8 19 12 20 9 21 11 22
REMARK SMILES IDX 10 23 13 24 15 25 14 26 24 27 25 28 26 29 34 30 27 31 32 32
REMARK SMILES IDX 30 33 35 34 28 36 29 37 33 39 31 41
REMARK H PARENT 35 35 29 38 33 40 31 42
ROOT
ATOM      1  C   UNL     1       0.792  -1.562   5.809  1.00  0.00     0.021 A 
ATOM      2  C   UNL     1      -0.078  -2.661   5.764  1.00  0.00     0.062 A 
ATOM      3  C   UNL     1      -0.750  -2.908   4.586  1.00  0.00     0.166 A 
ATOM      4  C   UNL     1      -0.592  -2.108   3.479  1.00  0.00     0.169 A 
ATOM      5  C   UNL     1       0.244  -1.013   3.487  1.00  0.00     0.097 A 
ATOM      6  C   UNL     1       0.966  -0.758   4.658  1.00  0.00     0.134 A 
ATOM      7  O   UNL     1      -1.354  -2.520   2.431  1.00  0.00    -0.453 OA
ATOM      8  C   UNL     1      -1.961  -3.705   2.984  1.00  0.00     0.468 C 
ATOM      9  O   UNL     1      -1.630  -3.924   4.374  1.00  0.00    -0.454 OA
ENDROOT
BRANCH   1  10
ATOM     10  C   UNL     1       1.498  -1.280   7.063  1.00  0.00     0.023 C 
BRANCH  10  11
ATOM     11  C   UNL     1       0.924  -0.842   8.195  1.00  0.00     0.045 C 
ATOM     12  C   UNL     1      -0.389  -0.159   8.331  1.00  0.00     0.334 C 
ATOM     13  O   UNL     1      -0.695  -0.124   9.658  1.00  0.00    -0.462 OA
ATOM     14  C   UNL     1       0.208  -0.976  10.371  1.00  0.00     0.242 C 
ATOM     15  C   UNL     1       1.495  -0.994   9.569  1.00  0.00     0.069 C 
ATOM     16  O   UNL     1      -1.088   0.303   7.450  1.00  0.00    -0.247 OA
BRANCH  15  17
ATOM     17  C   UNL     1       2.431   0.184   9.892  1.00  0.00     0.047 C 
BRANCH  17  18
ATOM     18  C   UNL     1       3.246  -0.023  11.148  1.00  0.00    -0.043 A 
ATOM     19  C   UNL     1       4.654   0.102  11.113  1.00  0.00     0.008 A 
ATOM     20  C   UNL     1       2.609  -0.342  12.357  1.00  0.00     0.054 A 
ATOM     21  C   UNL     1       5.422  -0.091  12.268  1.00  0.00     0.051 A 
ATOM     22  C   UNL     1       3.394  -0.534  13.473  1.00  0.00     0.166 A 
ATOM     23  C   UNL     1       4.761  -0.405  13.433  1.00  0.00     0.165 A 
ATOM     24  O   UNL     1       2.939  -0.869  14.712  1.00  0.00    -0.454 OA
ATOM     25  O   UNL     1       5.339  -0.626  14.646  1.00  0.00    -0.454 OA
ATOM     26  C   UNL     1       4.171  -0.881  15.459  1.00  0.00     0.468 C 
ENDBRANCH  17  18
ENDBRANCH  15  17
ENDBRANCH  10  11
ENDBRANCH   1  10
BRANCH   6  27
ATOM     27  O   UNL     1       1.802   0.329   4.726  1.00  0.00    -0.461 OA
BRANCH  27  28
ATOM     28  C   UNL     1       2.789   0.322   3.674  1.00  0.00     0.339 C 
ATOM     29  O   UNL     1       4.073   0.037   4.238  1.00  0.00    -0.332 OA
ATOM     30  C   UNL     1       2.804   1.725   3.015  1.00  0.00     0.214 C 
ATOM     31  C   UNL     1       5.111  -0.113   3.240  1.00  0.00     0.179 C 
ATOM     32  C   UNL     1       4.194   2.085   2.484  1.00  0.00     0.180 C 
ATOM     33  C   UNL     1       4.945   0.836   2.036  1.00  0.00     0.177 C 
BRANCH  30  34
ATOM     34  O   UNL     1       2.416   2.775   3.923  1.00  0.00    -0.384 OA
ATOM     35  H   UNL     1       3.229   3.032   4.403  1.00  0.00     0.211 HD
ENDBRANCH  30  34
BRANCH  31  36
ATOM     36  C   UNL     1       5.238  -1.579   2.803  1.00  0.00     0.191 C 
BRANCH  36  37
ATOM     37  O   UNL     1       5.750  -2.382   3.865  1.00  0.00    -0.394 OA
ATOM     38  H   UNL     1       6.727  -2.264   3.869  1.00  0.00     0.210 HD
ENDBRANCH  36  37
ENDBRANCH  31  36
BRANCH  32  39
ATOM     39  O   UNL     1       4.085   3.002   1.381  1.00  0.00    -0.387 OA
ATOM     40  H   UNL     1       5.005   3.148   1.083  1.00  0.00     0.211 HD
ENDBRANCH  32  39
BRANCH  33  41
ATOM     41  O   UNL     1       6.234   1.211   1.527  1.00  0.00    -0.387 OA
ATOM     42  H   UNL     1       6.614   1.799   2.212  1.00  0.00     0.211 HD
ENDBRANCH  33  41
ENDBRANCH  27  28
ENDBRANCH   6  27
TORSDOF 11
ENDMDL
MODEL 4
REMARK VINA RESULT:     -10.8      1.773      3.328
REMARK SMILES O=C1OC[C@H](Cc2ccc3c(c2)OCO3)/C1=C/c1cc2c(cc1O[C@@H]1O[C@@H](CO)[C@H](O)[C@@H](O)[C@@H]1O)OCO2
REMARK SMILES IDX 18 1 19 2 20 3 21 4 22 5 23 6 36 7 37 8 38 9 17 10 16 11
REMARK SMILES IDX 2 12 3 13 4 14 5 15 1 16 6 17 7 18 8 19 12 20 9 21 11 22
REMARK SMILES IDX 10 23 13 24 15 25 14 26 24 27 25 28 26 29 34 30 27 31 32 32
REMARK SMILES IDX 30 33 35 34 28 36 29 37 33 39 31 41
REMARK H PARENT 35 35 29 38 33 40 31 42
ROOT
ATOM      1  C   UNL     1       1.826  -1.794   4.109  1.00  0.00     0.021 A 
ATOM      2  C   UNL     1       1.940  -3.102   3.615  1.00  0.00     0.062 A 
ATOM      3  C   UNL     1       3.100  -3.450   2.959  1.00  0.00     0.166 A 
ATOM      4  C   UNL     1       4.126  -2.552   2.775  1.00  0.00     0.169 A 
ATOM      5  C   UNL     1       4.048  -1.256   3.234  1.00  0.00     0.097 A 
ATOM      6  C   UNL     1       2.895  -0.884   3.934  1.00  0.00     0.134 A 
ATOM      7  O   UNL     1       5.171  -3.095   2.093  1.00  0.00    -0.453 OA
ATOM      8  C   UNL     1       4.711  -4.452   1.925  1.00  0.00     0.468 C 
ATOM      9  O   UNL     1       3.370  -4.669   2.418  1.00  0.00    -0.454 OA
ENDROOT
BRANCH   1  10
ATOM     10  C   UNL     1       0.588  -1.408   4.792  1.00  0.00     0.023 C 
BRANCH  10  11
ATOM     11  C   UNL     1       0.299  -1.662   6.078  1.00  0.00     0.045 C 
ATOM     12  C   UNL     1      -0.997  -2.137   6.631  1.00  0.00     0.334 C 
ATOM     13  O   UNL     1      -0.777  -2.508   7.924  1.00  0.00    -0.462 OA
ATOM     14  C   UNL     1       0.632  -2.552   8.168  1.00  0.00     0.242 C 
ATOM     15  C   UNL     1       1.257  -1.545   7.221  1.00  0.00     0.069 C 
ATOM     16  O   UNL     1      -2.074  -2.196   6.070  1.00  0.00    -0.247 OA
BRANCH  15  17
ATOM     17  C   UNL     1       1.259  -0.110   7.773  1.00  0.00     0.047 C 
BRANCH  17  18
ATOM     18  C   UNL     1       1.653  -0.027   9.230  1.00  0.00    -0.043 A 
ATOM     19  C   UNL     1       0.663   0.117  10.230  1.00  0.00     0.008 A 
ATOM     20  C   UNL     1       3.005  -0.090   9.598  1.00  0.00     0.054 A 
ATOM     21  C   UNL     1       1.012   0.199  11.581  1.00  0.00     0.051 A 
ATOM     22  C   UNL     1       3.317   0.001  10.937  1.00  0.00     0.166 A 
ATOM     23  C   UNL     1       2.350   0.134  11.903  1.00  0.00     0.165 A 
ATOM     24  O   UNL     1       4.574  -0.021  11.459  1.00  0.00    -0.454 OA
ATOM     25  O   UNL     1       2.875   0.197  13.159  1.00  0.00    -0.454 OA
ATOM     26  C   UNL     1       4.284   0.058  12.869  1.00  0.00     0.468 C 
ENDBRANCH  17  18
ENDBRANCH  15  17
ENDBRANCH  10  11
ENDBRANCH   1  10
BRANCH   6  27
ATOM     27  O   UNL     1       2.760   0.400   4.400  1.00  0.00    -0.461 OA
BRANCH  27  28
ATOM     28  C   UNL     1       3.187   1.378   3.431  1.00  0.00     0.339 C 
ATOM     29  O   UNL     1       4.058   2.320   4.068  1.00  0.00    -0.332 OA
ATOM     30  C   UNL     1       1.931   2.107   2.891  1.00  0.00     0.214 C 
ATOM     31  C   UNL     1       4.637   3.271   3.145  1.00  0.00     0.179 C 
ATOM     32  C   UNL     1       2.241   3.555   2.501  1.00  0.00     0.180 C 
ATOM     33  C   UNL     1       3.680   3.689   2.013  1.00  0.00     0.177 C 
BRANCH  30  34
ATOM     34  O   UNL     1       0.854   2.152   3.849  1.00  0.00    -0.384 OA
ATOM     35  H   UNL     1       0.046   2.355   3.337  1.00  0.00     0.211 HD
ENDBRANCH  30  34
BRANCH  31  36
ATOM     36  C   UNL     1       5.978   2.755   2.601  1.00  0.00     0.191 C 
BRANCH  36  37
ATOM     37  O   UNL     1       5.779   1.631   1.745  1.00  0.00    -0.394 OA
ATOM     38  H   UNL     1       5.817   1.963   0.821  1.00  0.00     0.210 HD
ENDBRANCH  36  37
ENDBRANCH  31  36
BRANCH  32  39
ATOM     39  O   UNL     1       1.340   3.998   1.471  1.00  0.00    -0.387 OA
ATOM     40  H   UNL     1       1.602   3.497   0.673  1.00  0.00     0.211 HD
ENDBRANCH  32  39
BRANCH  33  41
ATOM     41  O   UNL     1       3.930   5.053   1.637  1.00  0.00    -0.387 OA
ATOM     42  H   UNL     1       4.906   5.135   1.624  1.00  0.00     0.211 HD
ENDBRANCH  33  41
ENDBRANCH  27  28
ENDBRANCH   6  27
TORSDOF 11
ENDMDL
MODEL 5
REMARK VINA RESULT:     -10.7      1.629      2.646
REMARK SMILES O=C1OC[C@H](Cc2ccc3c(c2)OCO3)/C1=C/c1cc2c(cc1O[C@@H]1O[C@@H](CO)[C@H](O)[C@@H](O)[C@@H]1O)OCO2
REMARK SMILES IDX 18 1 19 2 20 3 21 4 22 5 23 6 36 7 37 8 38 9 17 10 16 11
REMARK SMILES IDX 2 12 3 13 4 14 5 15 1 16 6 17 7 18 8 19 12 20 9 21 11 22
REMARK SMILES IDX 10 23 13 24 15 25 14 26 24 27 25 28 26 29 34 30 27 31 32 32
REMARK SMILES IDX 30 33 35 34 28 36 29 37 33 39 31 41
REMARK H PARENT 35 35 29 38 33 40 31 42
ROOT
ATOM      1  C   UNL     1       2.073  -1.660   4.251  1.00  0.00     0.021 A 
ATOM      2  C   UNL     1       1.916  -2.834   3.499  1.00  0.00     0.062 A 
ATOM      3  C   UNL     1       3.003  -3.303   2.795  1.00  0.00     0.166 A 
ATOM      4  C   UNL     1       4.213  -2.649   2.809  1.00  0.00     0.169 A 
ATOM      5  C   UNL     1       4.404  -1.488   3.525  1.00  0.00     0.097 A 
ATOM      6  C   UNL     1       3.328  -1.007   4.278  1.00  0.00     0.134 A 
ATOM      7  O   UNL     1       5.146  -3.272   2.039  1.00  0.00    -0.453 OA
ATOM      8  C   UNL     1       4.403  -4.424   1.591  1.00  0.00     0.468 C 
ATOM      9  O   UNL     1       3.022  -4.417   2.015  1.00  0.00    -0.454 OA
ENDROOT
BRANCH   1  10
ATOM     10  C   UNL     1       0.916  -1.142   4.989  1.00  0.00     0.023 C 
BRANCH  10  11
ATOM     11  C   UNL     1       0.559  -1.507   6.230  1.00  0.00     0.045 C 
ATOM     12  C   UNL     1      -0.737  -2.100   6.655  1.00  0.00     0.334 C 
ATOM     13  O   UNL     1      -0.580  -2.552   7.931  1.00  0.00    -0.462 OA
ATOM     14  C   UNL     1       0.810  -2.530   8.271  1.00  0.00     0.242 C 
ATOM     15  C   UNL     1       1.429  -1.419   7.443  1.00  0.00     0.069 C 
ATOM     16  O   UNL     1      -1.768  -2.182   6.016  1.00  0.00    -0.247 OA
BRANCH  15  17
ATOM     17  C   UNL     1       1.300  -0.031   8.094  1.00  0.00     0.047 C 
BRANCH  17  18
ATOM     18  C   UNL     1       1.752   0.002   9.535  1.00  0.00    -0.043 A 
ATOM     19  C   UNL     1       0.799   0.036  10.581  1.00  0.00     0.008 A 
ATOM     20  C   UNL     1       3.120  -0.000   9.846  1.00  0.00     0.054 A 
ATOM     21  C   UNL     1       1.204   0.070  11.920  1.00  0.00     0.051 A 
ATOM     22  C   UNL     1       3.484   0.042  11.174  1.00  0.00     0.166 A 
ATOM     23  C   UNL     1       2.555   0.069  12.184  1.00  0.00     0.165 A 
ATOM     24  O   UNL     1       4.763   0.068  11.641  1.00  0.00    -0.454 OA
ATOM     25  O   UNL     1       3.129   0.099  13.417  1.00  0.00    -0.454 OA
ATOM     26  C   UNL     1       4.531   0.057  13.065  1.00  0.00     0.468 C 
ENDBRANCH  17  18
ENDBRANCH  15  17
ENDBRANCH  10  11
ENDBRANCH   1  10
BRANCH   6  27
ATOM     27  O   UNL     1       3.458   0.155   4.998  1.00  0.00    -0.461 OA
BRANCH  27  28
ATOM     28  C   UNL     1       3.240   1.326   4.185  1.00  0.00     0.339 C 
ATOM     29  O   UNL     1       2.825   0.918   2.877  1.00  0.00    -0.332 OA
ATOM     30  C   UNL     1       4.576   2.107   4.093  1.00  0.00     0.214 C 
ATOM     31  C   UNL     1       2.464   2.029   2.024  1.00  0.00     0.179 C 
ATOM     32  C   UNL     1       4.703   2.852   2.762  1.00  0.00     0.180 C 
ATOM     33  C   UNL     1       3.335   3.281   2.244  1.00  0.00     0.177 C 
BRANCH  30  34
ATOM     34  O   UNL     1       5.732   1.255   4.211  1.00  0.00    -0.384 OA
ATOM     35  H   UNL     1       5.433   0.356   3.967  1.00  0.00     0.211 HD
ENDBRANCH  30  34
BRANCH  31  36
ATOM     36  C   UNL     1       0.966   2.344   2.144  1.00  0.00     0.191 C 
BRANCH  36  37
ATOM     37  O   UNL     1       0.762   3.606   2.778  1.00  0.00    -0.394 OA
ATOM     38  H   UNL     1       1.192   3.555   3.662  1.00  0.00     0.210 HD
ENDBRANCH  36  37
ENDBRANCH  31  36
BRANCH  32  39
ATOM     39  O   UNL     1       5.545   4.009   2.917  1.00  0.00    -0.387 OA
ATOM     40  H   UNL     1       5.526   4.452   2.045  1.00  0.00     0.211 HD
ENDBRANCH  32  39
BRANCH  33  41
ATOM     41  O   UNL     1       3.493   3.993   1.008  1.00  0.00    -0.387 OA
ATOM     42  H   UNL     1       3.757   3.310   0.358  1.00  0.00     0.211 HD
ENDBRANCH  33  41
ENDBRANCH  27  28
ENDBRANCH   6  27
TORSDOF 11
ENDMDL
MODEL 6
REMARK VINA RESULT:     -10.4      1.718      2.759
REMARK SMILES O=C1OC[C@H](Cc2ccc3c(c2)OCO3)/C1=C/c1cc2c(cc1O[C@@H]1O[C@@H](CO)[C@H](O)[C@@H](O)[C@@H]1O)OCO2
REMARK SMILES IDX 18 1 19 2 20 3 21 4 22 5 23 6 36 7 37 8 38 9 17 10 16 11
REMARK SMILES IDX 2 12 3 13 4 14 5 15 1 16 6 17 7 18 8 19 12 20 9 21 11 22
REMARK SMILES IDX 10 23 13 24 15 25 14 26 24 27 25 28 26 29 34 30 27 31 32 32
REMARK SMILES IDX 30 33 35 34 28 36 29 37 33 39 31 41
REMARK H PARENT 35 35 29 38 33 40 31 42
ROOT
ATOM      1  C   UNL     1       0.496  -2.049   5.955  1.00  0.00     0.021 A 
ATOM      2  C   UNL     1      -0.739  -2.713   5.930  1.00  0.00     0.062 A 
ATOM      3  C   UNL     1      -1.394  -2.821   4.722  1.00  0.00     0.166 A 
ATOM      4  C   UNL     1      -0.873  -2.291   3.565  1.00  0.00     0.169 A 
ATOM      5  C   UNL     1       0.330  -1.622   3.549  1.00  0.00     0.097 A 
ATOM      6  C   UNL     1       1.034  -1.526   4.755  1.00  0.00     0.134 A 
ATOM      7  O   UNL     1      -1.682  -2.498   2.492  1.00  0.00    -0.453 OA
ATOM      8  C   UNL     1      -2.741  -3.271   3.094  1.00  0.00     0.468 C 
ATOM      9  O   UNL     1      -2.596  -3.427   4.523  1.00  0.00    -0.454 OA
ENDROOT
BRANCH   1  10
ATOM     10  C   UNL     1       1.191  -1.912   7.238  1.00  0.00     0.023 C 
BRANCH  10  11
ATOM     11  C   UNL     1       0.846  -1.069   8.223  1.00  0.00     0.045 C 
ATOM     12  C   UNL     1      -0.172   0.012   8.165  1.00  0.00     0.334 C 
ATOM     13  O   UNL     1      -0.385   0.444   9.439  1.00  0.00    -0.462 OA
ATOM     14  C   UNL     1       0.235  -0.468  10.352  1.00  0.00     0.242 C 
ATOM     15  C   UNL     1       1.407  -1.079   9.609  1.00  0.00     0.069 C 
ATOM     16  O   UNL     1      -0.734   0.462   7.182  1.00  0.00    -0.247 OA
BRANCH  15  17
ATOM     17  C   UNL     1       2.684  -0.223   9.674  1.00  0.00     0.047 C 
BRANCH  17  18
ATOM     18  C   UNL     1       3.378  -0.281  11.016  1.00  0.00    -0.043 A 
ATOM     19  C   UNL     1       4.761  -0.005  11.116  1.00  0.00     0.008 A 
ATOM     20  C   UNL     1       2.652  -0.611  12.171  1.00  0.00     0.054 A 
ATOM     21  C   UNL     1       5.417  -0.059  12.351  1.00  0.00     0.051 A 
ATOM     22  C   UNL     1       3.330  -0.663  13.370  1.00  0.00     0.166 A 
ATOM     23  C   UNL     1       4.672  -0.387  13.461  1.00  0.00     0.165 A 
ATOM     24  O   UNL     1       2.782  -0.986  14.574  1.00  0.00    -0.454 OA
ATOM     25  O   UNL     1       5.137  -0.488  14.737  1.00  0.00    -0.454 OA
ATOM     26  C   UNL     1       3.922  -0.829  15.441  1.00  0.00     0.468 C 
ENDBRANCH  17  18
ENDBRANCH  15  17
ENDBRANCH  10  11
ENDBRANCH   1  10
BRANCH   6  27
ATOM     27  O   UNL     1       2.231  -0.856   4.800  1.00  0.00    -0.461 OA
BRANCH  27  28
ATOM     28  C   UNL     1       3.104  -1.228   3.712  1.00  0.00     0.339 C 
ATOM     29  O   UNL     1       3.916  -2.334   4.123  1.00  0.00    -0.332 OA
ATOM     30  C   UNL     1       4.004  -0.012   3.376  1.00  0.00     0.214 C 
ATOM     31  C   UNL     1       4.740  -2.858   3.055  1.00  0.00     0.179 C 
ATOM     32  C   UNL     1       5.374  -0.451   2.853  1.00  0.00     0.180 C 
ATOM     33  C   UNL     1       5.270  -1.772   2.098  1.00  0.00     0.177 C 
BRANCH  30  34
ATOM     34  O   UNL     1       4.242   0.841   4.513  1.00  0.00    -0.384 OA
ATOM     35  H   UNL     1       4.047   0.300   5.304  1.00  0.00     0.211 HD
ENDBRANCH  30  34
BRANCH  31  36
ATOM     36  C   UNL     1       4.007  -3.978   2.302  1.00  0.00     0.191 C 
BRANCH  36  37
ATOM     37  O   UNL     1       4.864  -4.583   1.334  1.00  0.00    -0.394 OA
ATOM     38  H   UNL     1       5.600  -3.951   1.166  1.00  0.00     0.210 HD
ENDBRANCH  36  37
ENDBRANCH  31  36
BRANCH  32  39
ATOM     39  O   UNL     1       5.923   0.558   1.985  1.00  0.00    -0.387 OA
ATOM     40  H   UNL     1       6.500   0.068   1.365  1.00  0.00     0.211 HD
ENDBRANCH  32  39
BRANCH  33  41
ATOM     41  O   UNL     1       6.567  -2.143   1.605  1.00  0.00    -0.387 OA
ATOM     42  H   UNL     1       6.446  -3.039   1.229  1.00  0.00     0.211 HD
ENDBRANCH  33  41
ENDBRANCH  27  28
ENDBRANCH   6  27
TORSDOF 11
ENDMDL
MODEL 7
REMARK VINA RESULT:     -10.3      1.581      2.722
REMARK SMILES O=C1OC[C@H](Cc2ccc3c(c2)OCO3)/C1=C/c1cc2c(cc1O[C@@H]1O[C@@H](CO)[C@H](O)[C@@H](O)[C@@H]1O)OCO2
REMARK SMILES IDX 18 1 19 2 20 3 21 4 22 5 23 6 36 7 37 8 38 9 17 10 16 11
REMARK SMILES IDX 2 12 3 13 4 14 5 15 1 16 6 17 7 18 8 19 12 20 9 21 11 22
REMARK SMILES IDX 10 23 13 24 15 25 14 26 24 27 25 28 26 29 34 30 27 31 32 32
REMARK SMILES IDX 30 33 35 34 28 36 29 37 33 39 31 41
REMARK H PARENT 35 35 29 38 33 40 31 42
ROOT
ATOM      1  C   UNL     1      -0.259  -1.831   5.949  1.00  0.00     0.021 A 
ATOM      2  C   UNL     1      -1.355  -2.611   5.549  1.00  0.00     0.062 A 
ATOM      3  C   UNL     1      -1.349  -3.132   4.274  1.00  0.00     0.166 A 
ATOM      4  C   UNL     1      -0.312  -2.900   3.400  1.00  0.00     0.169 A 
ATOM      5  C   UNL     1       0.775  -2.131   3.750  1.00  0.00     0.097 A 
ATOM      6  C   UNL     1       0.813  -1.616   5.051  1.00  0.00     0.134 A 
ATOM      7  O   UNL     1      -0.511  -3.495   2.193  1.00  0.00    -0.453 OA
ATOM      8  C   UNL     1      -1.759  -4.179   2.430  1.00  0.00     0.468 C 
ATOM      9  O   UNL     1      -2.329  -3.902   3.729  1.00  0.00    -0.454 OA
ENDROOT
BRANCH   1  10
ATOM     10  C   UNL     1      -0.264  -1.255   7.297  1.00  0.00     0.023 C 
BRANCH  10  11
ATOM     11  C   UNL     1       0.772  -1.263   8.150  1.00  0.00     0.045 C 
ATOM     12  C   UNL     1       1.544  -2.445   8.617  1.00  0.00     0.334 C 
ATOM     13  O   UNL     1       2.654  -1.982   9.256  1.00  0.00    -0.462 OA
ATOM     14  C   UNL     1       2.790  -0.578   9.007  1.00  0.00     0.242 C 
ATOM     15  C   UNL     1       1.385  -0.052   8.779  1.00  0.00     0.069 C 
ATOM     16  O   UNL     1       1.269  -3.621   8.477  1.00  0.00    -0.247 OA
BRANCH  15  17
ATOM     17  C   UNL     1       0.650   0.302  10.083  1.00  0.00     0.047 C 
BRANCH  17  18
ATOM     18  C   UNL     1       1.492   0.104  11.322  1.00  0.00    -0.043 A 
ATOM     19  C   UNL     1       1.033  -0.721  12.375  1.00  0.00     0.008 A 
ATOM     20  C   UNL     1       2.739   0.740  11.435  1.00  0.00     0.054 A 
ATOM     21  C   UNL     1       1.801  -0.910  13.529  1.00  0.00     0.051 A 
ATOM     22  C   UNL     1       3.467   0.540  12.587  1.00  0.00     0.166 A 
ATOM     23  C   UNL     1       3.016  -0.268  13.603  1.00  0.00     0.165 A 
ATOM     24  O   UNL     1       4.678   1.097  12.864  1.00  0.00    -0.454 OA
ATOM     25  O   UNL     1       3.894  -0.334  14.641  1.00  0.00    -0.454 OA
ATOM     26  C   UNL     1       4.963   0.503  14.146  1.00  0.00     0.468 C 
ENDBRANCH  17  18
ENDBRANCH  15  17
ENDBRANCH  10  11
ENDBRANCH   1  10
BRANCH   6  27
ATOM     27  O   UNL     1       1.866  -0.829   5.448  1.00  0.00    -0.461 OA
BRANCH  27  28
ATOM     28  C   UNL     1       2.314   0.051   4.396  1.00  0.00     0.339 C 
ATOM     29  O   UNL     1       3.680   0.408   4.635  1.00  0.00    -0.332 OA
ATOM     30  C   UNL     1       1.428   1.321   4.418  1.00  0.00     0.214 C 
ATOM     31  C   UNL     1       4.256   1.192   3.565  1.00  0.00     0.179 C 
ATOM     32  C   UNL     1       2.200   2.557   3.948  1.00  0.00     0.180 C 
ATOM     33  C   UNL     1       3.260   2.176   2.920  1.00  0.00     0.177 C 
BRANCH  30  34
ATOM     34  O   UNL     1       0.911   1.623   5.729  1.00  0.00    -0.384 OA
ATOM     35  H   UNL     1       1.536   2.263   6.125  1.00  0.00     0.211 HD
ENDBRANCH  30  34
BRANCH  31  36
ATOM     36  C   UNL     1       4.921   0.284   2.520  1.00  0.00     0.191 C 
BRANCH  36  37
ATOM     37  O   UNL     1       5.827   1.027   1.705  1.00  0.00    -0.394 OA
ATOM     38  H   UNL     1       5.797   1.958   2.018  1.00  0.00     0.210 HD
ENDBRANCH  36  37
ENDBRANCH  31  36
BRANCH  32  39
ATOM     39  O   UNL     1       1.297   3.521   3.374  1.00  0.00    -0.387 OA
ATOM     40  H   UNL     1       1.668   3.717   2.491  1.00  0.00     0.211 HD
ENDBRANCH  32  39
BRANCH  33  41
ATOM     41  O   UNL     1       3.951   3.359   2.487  1.00  0.00    -0.387 OA
ATOM     42  H   UNL     1       4.698   3.030   1.946  1.00  0.00     0.211 HD
ENDBRANCH  33  41
ENDBRANCH  27  28
ENDBRANCH   6  27
TORSDOF 11
ENDMDL
MODEL 8
REMARK VINA RESULT:     -10.1      1.332      4.737
REMARK SMILES O=C1OC[C@H](Cc2ccc3c(c2)OCO3)/C1=C/c1cc2c(cc1O[C@@H]1O[C@@H](CO)[C@H](O)[C@@H](O)[C@@H]1O)OCO2
REMARK SMILES IDX 18 1 19 2 20 3 21 4 22 5 23 6 36 7 37 8 38 9 17 10 16 11
REMARK SMILES IDX 2 12 3 13 4 14 5 15 1 16 6 17 7 18 8 19 12 20 9 21 11 22
REMARK SMILES IDX 10 23 13 24 15 25 14 26 24 27 25 28 26 29 34 30 27 31 32 32
REMARK SMILES IDX 30 33 35 34 28 36 29 37 33 39 31 41
REMARK H PARENT 35 35 29 38 33 40 31 42
ROOT
ATOM      1  C   UNL     1       1.802   0.791   5.324  1.00  0.00     0.021 A 
ATOM      2  C   UNL     1       2.375   1.958   4.796  1.00  0.00     0.062 A 
ATOM      3  C   UNL     1       3.213   1.834   3.709  1.00  0.00     0.166 A 
ATOM      4  C   UNL     1       3.499   0.611   3.149  1.00  0.00     0.169 A 
ATOM      5  C   UNL     1       2.966  -0.559   3.645  1.00  0.00     0.097 A 
ATOM      6  C   UNL     1       2.084  -0.461   4.727  1.00  0.00     0.134 A 
ATOM      7  O   UNL     1       4.354   0.711   2.096  1.00  0.00    -0.453 OA
ATOM      8  C   UNL     1       4.525   2.141   2.020  1.00  0.00     0.468 C 
ATOM      9  O   UNL     1       3.851   2.857   3.080  1.00  0.00    -0.454 OA
ENDROOT
BRANCH   1  10
ATOM     10  C   UNL     1       0.924   0.910   6.492  1.00  0.00     0.023 C 
BRANCH  10  11
ATOM     11  C   UNL     1       0.893   0.060   7.531  1.00  0.00     0.045 C 
ATOM     12  C   UNL     1      -0.260  -0.759   7.988  1.00  0.00     0.334 C 
ATOM     13  O   UNL     1       0.213  -1.658   8.896  1.00  0.00    -0.462 OA
ATOM     14  C   UNL     1       1.644  -1.651   8.865  1.00  0.00     0.242 C 
ATOM     15  C   UNL     1       2.050  -0.257   8.424  1.00  0.00     0.069 C 
ATOM     16  O   UNL     1      -1.422  -0.673   7.643  1.00  0.00    -0.247 OA
BRANCH  15  17
ATOM     17  C   UNL     1       2.121   0.751   9.585  1.00  0.00     0.047 C 
BRANCH  17  18
ATOM     18  C   UNL     1       2.861   0.225  10.792  1.00  0.00    -0.043 A 
ATOM     19  C   UNL     1       4.272   0.130  10.780  1.00  0.00     0.008 A 
ATOM     20  C   UNL     1       2.149  -0.176  11.935  1.00  0.00     0.054 A 
ATOM     21  C   UNL     1       4.970  -0.359  11.890  1.00  0.00     0.051 A 
ATOM     22  C   UNL     1       2.867  -0.659  13.008  1.00  0.00     0.166 A 
ATOM     23  C   UNL     1       4.237  -0.743  12.991  1.00  0.00     0.165 A 
ATOM     24  O   UNL     1       2.332  -1.107  14.177  1.00  0.00    -0.454 OA
ATOM     25  O   UNL     1       4.741  -1.238  14.155  1.00  0.00    -0.454 OA
ATOM     26  C   UNL     1       3.527  -1.430  14.916  1.00  0.00     0.468 C 
ENDBRANCH  17  18
ENDBRANCH  15  17
ENDBRANCH  10  11
ENDBRANCH   1  10
BRANCH   6  27
ATOM     27  O   UNL     1       1.537  -1.596   5.272  1.00  0.00    -0.461 OA
BRANCH  27  28
ATOM     28  C   UNL     1       0.403  -2.069   4.516  1.00  0.00     0.339 C 
ATOM     29  O   UNL     1      -0.380  -2.939   5.340  1.00  0.00    -0.332 OA
ATOM     30  C   UNL     1       0.933  -2.847   3.285  1.00  0.00     0.214 C 
ATOM     31  C   UNL     1      -1.607  -3.368   4.707  1.00  0.00     0.179 C 
ATOM     32  C   UNL     1      -0.023  -3.969   2.871  1.00  0.00     0.180 C 
ATOM     33  C   UNL     1      -1.468  -3.596   3.189  1.00  0.00     0.177 C 
BRANCH  30  34
ATOM     34  O   UNL     1       2.219  -3.456   3.517  1.00  0.00    -0.384 OA
ATOM     35  H   UNL     1       2.081  -4.121   4.220  1.00  0.00     0.211 HD
ENDBRANCH  30  34
BRANCH  31  36
ATOM     36  C   UNL     1      -2.757  -2.406   5.039  1.00  0.00     0.191 C 
BRANCH  36  37
ATOM     37  O   UNL     1      -4.019  -3.004   4.746  1.00  0.00    -0.394 OA
ATOM     38  H   UNL     1      -3.951  -3.953   4.992  1.00  0.00     0.210 HD
ENDBRANCH  36  37
ENDBRANCH  31  36
BRANCH  32  39
ATOM     39  O   UNL     1       0.105  -4.241   1.463  1.00  0.00    -0.387 OA
ATOM     40  H   UNL     1      -0.493  -3.602   1.028  1.00  0.00     0.211 HD
ENDBRANCH  32  39
BRANCH  33  41
ATOM     41  O   UNL     1      -2.338  -4.660   2.770  1.00  0.00    -0.387 OA
ATOM     42  H   UNL     1      -2.341  -4.613   1.792  1.00  0.00     0.211 HD
ENDBRANCH  33  41
ENDBRANCH  27  28
ENDBRANCH   6  27
TORSDOF 11
ENDMDL
MODEL 9
REMARK VINA RESULT:      -9.6      3.235      7.195
REMARK SMILES O=C1OC[C@H](Cc2ccc3c(c2)OCO3)/C1=C/c1cc2c(cc1O[C@@H]1O[C@@H](CO)[C@H](O)[C@@H](O)[C@@H]1O)OCO2
REMARK SMILES IDX 18 1 19 2 20 3 21 4 22 5 23 6 36 7 37 8 38 9 17 10 16 11
REMARK SMILES IDX 2 12 3 13 4 14 5 15 1 16 6 17 7 18 8 19 12 20 9 21 11 22
REMARK SMILES IDX 10 23 13 24 15 25 14 26 24 27 25 28 26 29 34 30 27 31 32 32
REMARK SMILES IDX 30 33 35 34 28 36 29 37 33 39 31 41
REMARK H PARENT 35 35 29 38 33 40 31 42
ROOT
ATOM      1  C   UNL     1       1.405  -0.633   5.108  1.00  0.00     0.021 A 
ATOM      2  C   UNL     1       0.181  -1.007   5.683  1.00  0.00     0.062 A 
ATOM      3  C   UNL     1      -0.110  -0.543   6.947  1.00  0.00     0.166 A 
ATOM      4  C   UNL     1       0.763   0.257   7.645  1.00  0.00     0.169 A 
ATOM      5  C   UNL     1       1.979   0.637   7.121  1.00  0.00     0.097 A 
ATOM      6  C   UNL     1       2.288   0.209   5.824  1.00  0.00     0.134 A 
ATOM      7  O   UNL     1       0.288   0.592   8.875  1.00  0.00    -0.453 OA
ATOM      8  C   UNL     1      -1.009  -0.037   8.845  1.00  0.00     0.468 C 
ATOM      9  O   UNL     1      -1.245  -0.813   7.648  1.00  0.00    -0.454 OA
ENDROOT
BRANCH   1  10
ATOM     10  C   UNL     1       1.732  -1.137   3.771  1.00  0.00     0.023 C 
BRANCH  10  11
ATOM     11  C   UNL     1       2.556  -2.163   3.507  1.00  0.00     0.045 C 
ATOM     12  C   UNL     1       3.962  -2.088   3.032  1.00  0.00     0.334 C 
ATOM     13  O   UNL     1       4.498  -3.335   3.144  1.00  0.00    -0.462 OA
ATOM     14  C   UNL     1       3.614  -4.161   3.909  1.00  0.00     0.242 C 
ATOM     15  C   UNL     1       2.219  -3.611   3.680  1.00  0.00     0.069 C 
ATOM     16  O   UNL     1       4.559  -1.116   2.611  1.00  0.00    -0.247 OA
BRANCH  15  17
ATOM     17  C   UNL     1       1.550  -4.159   2.408  1.00  0.00     0.047 C 
BRANCH  17  18
ATOM     18  C   UNL     1       0.051  -3.963   2.386  1.00  0.00    -0.043 A 
ATOM     19  C   UNL     1      -0.678  -4.174   1.193  1.00  0.00     0.008 A 
ATOM     20  C   UNL     1      -0.625  -3.568   3.550  1.00  0.00     0.054 A 
ATOM     21  C   UNL     1      -2.066  -3.993   1.156  1.00  0.00     0.051 A 
ATOM     22  C   UNL     1      -1.990  -3.391   3.479  1.00  0.00     0.166 A 
ATOM     23  C   UNL     1      -2.693  -3.604   2.319  1.00  0.00     0.165 A 
ATOM     24  O   UNL     1      -2.789  -2.990   4.506  1.00  0.00    -0.454 OA
ATOM     25  O   UNL     1      -4.028  -3.381   2.471  1.00  0.00    -0.454 OA
ATOM     26  C   UNL     1      -4.084  -3.030   3.873  1.00  0.00     0.468 C 
ENDBRANCH  17  18
ENDBRANCH  15  17
ENDBRANCH  10  11
ENDBRANCH   1  10
BRANCH   6  27
ATOM     27  O   UNL     1       3.492   0.546   5.258  1.00  0.00    -0.461 OA
BRANCH  27  28
ATOM     28  C   UNL     1       3.384   1.691   4.390  1.00  0.00     0.339 C 
ATOM     29  O   UNL     1       2.721   1.302   3.181  1.00  0.00    -0.332 OA
ATOM     30  C   UNL     1       4.814   2.192   4.066  1.00  0.00     0.214 C 
ATOM     31  C   UNL     1       2.455   2.416   2.297  1.00  0.00     0.179 C 
ATOM     32  C   UNL     1       4.889   2.825   2.675  1.00  0.00     0.180 C 
ATOM     33  C   UNL     1       3.565   3.485   2.304  1.00  0.00     0.177 C 
BRANCH  30  34
ATOM     34  O   UNL     1       5.798   1.138   4.101  1.00  0.00    -0.384 OA
ATOM     35  H   UNL     1       6.669   1.583   4.119  1.00  0.00     0.211 HD
ENDBRANCH  30  34
BRANCH  31  36
ATOM     36  C   UNL     1       1.073   3.022   2.582  1.00  0.00     0.191 C 
BRANCH  36  37
ATOM     37  O   UNL     1       1.168   4.433   2.772  1.00  0.00    -0.394 OA
ATOM     38  H   UNL     1       1.471   4.579   3.695  1.00  0.00     0.210 HD
ENDBRANCH  36  37
ENDBRANCH  31  36
BRANCH  32  39
ATOM     39  O   UNL     1       5.944   3.804   2.629  1.00  0.00    -0.387 OA
ATOM     40  H   UNL     1       5.666   4.503   3.253  1.00  0.00     0.211 HD
ENDBRANCH  32  39
BRANCH  33  41
ATOM     41  O   UNL     1       3.677   4.085   1.005  1.00  0.00    -0.387 OA
ATOM     42  H   UNL     1       2.808   4.506   0.847  1.00  0.00     0.211 HD
ENDBRANCH  33  41
ENDBRANCH  27  28
ENDBRANCH   6  27
TORSDOF 11
ENDMDL
